# Time 	 GP Component 	 Full model (GP + Keplerian) 	 model1down 	 model1up 	 model2down 	 model2up 	 model3down 	 model3up
2458867.0164514272 	 0.0000000000 	 -7.5308723853 	 -12.1264911703 	 -2.6206313956 	 -16.1575365982 	 2.8994096262 	 -18.6623238997 	 6.7925253379
2458867.2216566326 	 0.0000000000 	 -14.7387848098 	 -18.1262493768 	 -10.8006082946 	 -21.2546246448 	 -5.8594085837 	 -23.0388066645 	 -1.8151218762
2458867.4268618375 	 0.0000000000 	 -19.6695500778 	 -21.9583255888 	 -17.0577555179 	 -24.3233045960 	 -13.5190660571 	 -25.9334857741 	 -10.0634441350
2458867.6320670429 	 0.0000000000 	 -22.0255126219 	 -23.8688650076 	 -20.1972282112 	 -26.0082440375 	 -18.0851120961 	 -27.3727594040 	 -16.1384829740
2458867.8372722482 	 0.0000000000 	 -22.0485693198 	 -24.0132914709 	 -19.9152622579 	 -26.1393535222 	 -17.5816507744 	 -27.7113118721 	 -15.8784626060
2458868.0424774531 	 0.0000000000 	 -19.6479905205 	 -22.1959258602 	 -16.9364715483 	 -24.6591333098 	 -13.8379017220 	 -26.4227896820 	 -11.8735976857
2458868.2476826585 	 0.0000000000 	 -15.1914816735 	 -18.1891712140 	 -12.0347593290 	 -21.3149748829 	 -8.5761995783 	 -23.4133513734 	 -6.4804214319
2458868.4528878639 	 0.0000000000 	 -9.2157880048 	 -12.5217985267 	 -5.8615391026 	 -16.0803765159 	 -2.2278544531 	 -18.7563372925 	 0.0902534229
2458868.6580930687 	 0.0000000000 	 -2.3257223688 	 -5.7222940587 	 1.1783297956 	 -9.4836846932 	 4.7338490937 	 -12.1553473946 	 7.4528071613
2458868.8632982741 	 0.0000000000 	 4.9919038727 	 1.5770731947 	 8.4493655424 	 -2.1558744408 	 11.9215563408 	 -4.9677228341 	 14.6588291402
2458869.0685034795 	 0.0000000000 	 11.9800277087 	 8.6435222681 	 15.3064276773 	 5.0724928898 	 18.7275103282 	 2.3846940692 	 20.9771680906
2458869.2737086844 	 0.0000000000 	 17.9090387254 	 14.8336237806 	 20.9186581538 	 11.4577813122 	 24.0145803336 	 9.1430679623 	 26.1588171194
2458869.4789138897 	 0.0000000000 	 21.9735189924 	 19.3823238507 	 24.4924723874 	 16.4888588438 	 27.3095987429 	 14.3548789089 	 29.2306825011
2458869.6841190951 	 0.0000000000 	 23.4196795279 	 21.3537639246 	 25.5540070837 	 19.1053389870 	 28.0255240535 	 17.5241181489 	 29.6638455166
2458869.8893243000 	 0.0000000000 	 22.0094444503 	 19.6984753394 	 24.1451097282 	 16.7612482139 	 26.4649426685 	 14.6067017343 	 28.1550612697
2458870.0945295054 	 0.0000000000 	 17.6276707480 	 14.0955156091 	 20.5766022931 	 9.6638703589 	 23.3766080081 	 6.4416256130 	 25.2144264665
2458870.2997347107 	 0.0000000000 	 10.6375894005 	 5.9395532102 	 14.8029974746 	 0.7002855998 	 18.6359234667 	 -2.8694654606 	 21.1034612737
2458870.5049399156 	 0.0000000000 	 2.0663357059 	 -3.0483624805 	 7.0437604843 	 -8.1925922373 	 12.0582900329 	 -11.2924806076 	 15.1546447954
2458870.7101451210 	 0.0000000000 	 -6.5518788575 	 -11.2599944039 	 -1.6374824864 	 -15.4292979491 	 3.8361205916 	 -18.0068941890 	 7.5679448872
2458870.9153503263 	 0.0000000000 	 -13.9870384716 	 -17.5296411624 	 -9.9583615826 	 -20.7070021078 	 -4.8739212857 	 -22.6444146033 	 -0.9177776212
2458871.1205555312 	 0.0000000000 	 -19.2391834310 	 -21.6174252299 	 -16.4643584228 	 -24.0257077917 	 -12.7957863264 	 -25.6724247031 	 -9.1603755014
2458871.3257607366 	 0.0000000000 	 -21.8834091543 	 -23.7325305230 	 -20.0444614522 	 -25.8708816077 	 -17.8112079048 	 -27.2812465532 	 -15.6959358786
2458871.5309659420 	 0.0000000000 	 -22.1756344907 	 -24.0997115767 	 -20.1115338174 	 -26.2269896577 	 -17.8629475973 	 -27.7762491064 	 -16.2650836741
2458871.7361711469 	 0.0000000000 	 -20.0429372499 	 -22.5175832462 	 -17.4135776343 	 -24.9194043807 	 -14.4065566590 	 -26.6589639459 	 -12.4711501104
2458871.9413763522 	 0.0000000000 	 -15.8050040297 	 -18.7591661546 	 -12.7131654122 	 -21.7960657574 	 -9.3077765977 	 -23.7857085193 	 -7.1890331630
2458872.1465815576 	 0.0000000000 	 -9.9779794071 	 -13.2438770966 	 -6.6644835415 	 -16.7407607425 	 -3.0156000457 	 -19.3123132319 	 -0.7710474349
2458872.3517867625 	 0.0000000000 	 -3.1764802250 	 -6.5409669018 	 0.2970096933 	 -10.2444932930 	 3.8358732376 	 -12.9472153013 	 6.4753991277
2458872.5569919678 	 0.0000000000 	 4.1257507934 	 0.7426888100 	 7.5873035441 	 -2.9588401456 	 11.0673142635 	 -5.7114209029 	 13.8678847002
2458872.7621971732 	 0.0000000000 	 11.1934418848 	 7.8560135293 	 14.5257335671 	 4.2612759246 	 17.9339798366 	 1.5651743175 	 20.1853554245
2458872.9674023781 	 0.0000000000 	 17.2805582400 	 14.1939872118 	 20.3333612269 	 10.8494451565 	 23.4665634706 	 8.5019843244 	 25.6267727624
2458873.1726075835 	 0.0000000000 	 21.6176046462 	 18.9799718816 	 24.2039670499 	 16.0043760203 	 27.0635702352 	 13.8480260542 	 29.0686605113
2458873.3778127888 	 0.0000000000 	 23.4064097386 	 21.3044577279 	 25.5660156199 	 19.0048491761 	 28.1026072841 	 17.3426118887 	 29.7832930710
2458873.5830179937 	 0.0000000000 	 22.3182622485 	 20.1186917573 	 24.4409171380 	 17.3767138692 	 26.7159755135 	 15.4156081757 	 28.4521432102
2458873.7882231991 	 0.0000000000 	 18.3002683631 	 14.9323697082 	 21.1098969302 	 10.7101015279 	 23.8090203141 	 7.6553733968 	 25.5607115420
2458873.9934284044 	 0.0000000000 	 11.5663119138 	 7.0113676658 	 15.5770694869 	 1.8241454074 	 19.2788372663 	 -1.7478703525 	 21.5746305844
2458874.1986336093 	 0.0000000000 	 3.1084215650 	 -1.9702578043 	 8.0037846155 	 -7.1447086137 	 12.8811047906 	 -10.3006304923 	 15.8925640985
2458874.4038388147 	 0.0000000000 	 -5.5691533871 	 -10.3495213023 	 -0.6279266825 	 -14.6460421187 	 4.7671813990 	 -17.3529677724 	 8.4771916628
2458874.6090440201 	 0.0000000000 	 -13.2307370530 	 -16.9006316994 	 -9.0573997320 	 -20.1920937032 	 -3.9435438767 	 -22.2208895320 	 0.0437461452
2458874.8142492250 	 0.0000000000 	 -18.7744406169 	 -21.2470167997 	 -15.8357755649 	 -23.7425736977 	 -12.0395585255 	 -25.4285107965 	 -8.2919000341
2458875.0194544303 	 0.0000000000 	 -21.6933656778 	 -23.5749210726 	 -19.8342035873 	 -25.7499217942 	 -17.4808560887 	 -27.1404689793 	 -15.0830495540
2458875.2246596357 	 0.0000000000 	 -22.2652714567 	 -24.1374105795 	 -20.2712502520 	 -26.2651976718 	 -18.0717606898 	 -27.7519976309 	 -16.5824280940
2458875.4298648406 	 0.0000000000 	 -20.4110595336 	 -22.7994566194 	 -17.8636248690 	 -25.1551878243 	 -14.9438875134 	 -26.8025481503 	 -13.0273610714
2458875.6350700459 	 0.0000000000 	 -16.3876525855 	 -19.2917747190 	 -13.3672042828 	 -22.2334267537 	 -9.9896390354 	 -24.1791100126 	 -7.8714902964
2458875.8402752508 	 0.0000000000 	 -10.7232594260 	 -13.9286920072 	 -7.4598954313 	 -17.3871413408 	 -3.8370550662 	 -19.9119235212 	 -1.6406327279
2458876.0454804562 	 0.0000000000 	 -4.0142050084 	 -7.3475555659 	 -0.5801910364 	 -11.0084198307 	 2.9572042702 	 -13.6948509962 	 5.4711574805
2458876.2506856616 	 0.0000000000 	 3.2674826556 	 -0.1128893364 	 6.7137991349 	 -3.7741909523 	 10.1419845406 	 -6.5042055622 	 13.0125241225
2458876.4558908665 	 0.0000000000 	 10.3971743178 	 7.0783902390 	 13.7150714896 	 3.5097060492 	 17.1243099490 	 0.7034492764 	 19.4368239768
2458876.6610960718 	 0.0000000000 	 16.6439754385 	 13.5333851313 	 19.7114264827 	 10.1977844135 	 22.8799513490 	 7.7778987316 	 24.9728743939
2458876.8663012772 	 0.0000000000 	 21.2242395610 	 18.5374854138 	 23.8712014372 	 15.5003032510 	 26.7822021783 	 13.3525097798 	 28.6945383784
2458877.0715064821 	 0.0000000000 	 23.3588371259 	 21.2014011754 	 25.5325667578 	 18.8471826387 	 28.1085246175 	 17.0948532367 	 29.8455938890
2458877.2767116874 	 0.0000000000 	 22.5897683662 	 20.4841049038 	 24.7081857594 	 17.9016429902 	 27.0244438956 	 16.1831855898 	 28.7969279999
2458877.4819168928 	 0.0000000000 	 18.9416748587 	 15.7448677956 	 21.5841622775 	 11.7362703701 	 24.2190385218 	 8.8743592457 	 25.8828602494
2458877.6871220977 	 0.0000000000 	 12.4609808026 	 8.0533160254 	 16.3307914940 	 3.0120615008 	 19.8246947994 	 -0.6416750191 	 22.1178274608
2458877.8923273031 	 0.0000000000 	 4.1532878223 	 -0.9051035609 	 8.9478514087 	 -6.1090807143 	 13.7052497363 	 -9.2740827442 	 16.5842988718
2458878.0975325084 	 0.0000000000 	 -4.5736936302 	 -9.4022506227 	 0.3676738363 	 -13.8488659022 	 5.6903450834 	 -16.5833138206 	 9.2626499893
2458878.3027377133 	 0.0000000000 	 -12.4325593455 	 -16.2438696070 	 -8.1225084537 	 -19.6330248553 	 -2.9707639514 	 -21.7276511901 	 0.9792297565
2458878.5079429187 	 0.0000000000 	 -18.2579383666 	 -20.8455157991 	 -15.1763393529 	 -23.4249001529 	 -11.2745472293 	 -25.1718114711 	 -7.3943292874
2458878.7131481241 	 0.0000000000 	 -21.4725824584 	 -23.4056153590 	 -19.5410187458 	 -25.5609892484 	 -17.0946506124 	 -26.9636973577 	 -14.5862945345
2458878.9183533289 	 0.0000000000 	 -22.3189849431 	 -24.1706901813 	 -20.3875945902 	 -26.3103473870 	 -18.2604164858 	 -27.7045023166 	 -16.8020779486
2458879.1235585343 	 0.0000000000 	 -20.7555991747 	 -23.0600187464 	 -18.2699835633 	 -25.3491820914 	 -15.4684774267 	 -27.0381536805 	 -13.5876965622
2458879.3287637397 	 0.0000000000 	 -16.9600042430 	 -19.8136561259 	 -13.9930360215 	 -22.6447822424 	 -10.7009703256 	 -24.5285186767 	 -8.5827429308
2458879.5339689446 	 0.0000000000 	 -11.4709630616 	 -14.6044942679 	 -8.2321556582 	 -17.9999543003 	 -4.6802118186 	 -20.5251032449 	 -2.4636333788
2458879.7391741499 	 0.0000000000 	 -4.8280888267 	 -8.1389570938 	 -1.4426961672 	 -11.7880959288 	 2.1007055421 	 -14.5012812367 	 4.5638555034
2458879.9443793553 	 0.0000000000 	 2.3962374287 	 -0.9601077517 	 5.8438519388 	 -4.6037338402 	 9.2786696948 	 -7.2972834716 	 12.0812239049
2458880.1495845602 	 0.0000000000 	 9.5880798901 	 6.2868078899 	 12.9168261447 	 2.6984657498 	 16.2974961829 	 -0.0786942502 	 18.6321096754
2458880.3547897656 	 0.0000000000 	 15.9831595072 	 12.8581805730 	 19.0695985350 	 9.5144421731 	 22.2508011234 	 6.9977194821 	 24.3650641721
2458880.5599949709 	 0.0000000000 	 20.8211540179 	 18.0657691068 	 23.4952707511 	 14.9660553802 	 26.3979539972 	 12.8278429970 	 28.4190610287
2458880.7652001758 	 0.0000000000 	 23.2528977186 	 21.0537294890 	 25.4664256258 	 18.6032022316 	 28.0822526882 	 16.7795141278 	 29.9065089050
2458880.9704053812 	 0.0000000000 	 22.8381811485 	 20.7688491140 	 24.9456144774 	 18.3133425024 	 27.2432321007 	 16.6981603056 	 28.9600047265
2458881.1756105865 	 0.0000000000 	 19.5343916793 	 16.5136524399 	 22.0444870434 	 12.6699599406 	 24.6162784127 	 9.9927334880 	 26.2501368472
2458881.3808157914 	 0.0000000000 	 13.3574795703 	 9.0612152317 	 17.0365272090 	 4.1471282470 	 20.3509517708 	 0.5320137476 	 22.6631912147
2458881.5860209968 	 0.0000000000 	 5.1896958178 	 0.1907975365 	 9.8806694417 	 -5.0008874170 	 14.4525477991 	 -8.2145229191 	 17.2670333767
2458881.7912262022 	 0.0000000000 	 -3.5866260778 	 -8.4523499892 	 1.3847888142 	 -13.0008119793 	 6.6452495462 	 -15.7359361831 	 10.0840572142
2458881.9964314071 	 0.0000000000 	 -11.6015203812 	 -15.5380560694 	 -7.2049102294 	 -18.9908927341 	 -1.9981704762 	 -21.2154411530 	 1.8082679227
2458882.2016366124 	 0.0000000000 	 -17.6954720558 	 -20.4061036428 	 -14.4684255275 	 -23.0765530436 	 -10.4193552276 	 -24.8006736819 	 -6.5468087179
2458882.4068418178 	 0.0000000000 	 -21.2219245236 	 -23.1932749132 	 -19.2215954321 	 -25.3911035875 	 -16.6590562803 	 -26.8081022661 	 -13.9721069941
2458882.6120470227 	 0.0000000000 	 -22.3341291581 	 -24.1755698286 	 -20.4559711752 	 -26.2900984179 	 -18.4116302564 	 -27.6506213437 	 -16.9933514479
2458882.8172522280 	 0.0000000000 	 -21.0722559975 	 -23.2962463927 	 -18.6607515028 	 -25.5521258155 	 -15.9292958132 	 -27.2650522280 	 -14.0831439608
2458883.0224574334 	 0.0000000000 	 -17.5086905551 	 -20.2881189337 	 -14.5859502689 	 -23.0577346089 	 -11.3676331863 	 -24.8663821051 	 -9.2831435289
2458883.2276626383 	 0.0000000000 	 -12.1895502585 	 -15.2729279596 	 -8.9881343432 	 -18.5877825332 	 -5.4554920577 	 -21.0394973141 	 -3.3182849474
2458883.4328678437 	 0.0000000000 	 -5.6481471323 	 -8.9393200083 	 -2.3074459347 	 -12.5303941770 	 1.2474286504 	 -15.2050818554 	 3.6638061772
2458883.6380730490 	 0.0000000000 	 1.5318102225 	 -1.7801499249 	 4.9539541137 	 -5.4289826315 	 8.3740911609 	 -8.1087445912 	 11.1320341488
2458883.8432782539 	 0.0000000000 	 8.7790290213 	 5.4891670920 	 12.0960092396 	 1.8990899485 	 15.4520467231 	 -0.8156998284 	 17.8535621633
2458884.0484834593 	 0.0000000000 	 15.3012723359 	 12.1722561898 	 18.4095674489 	 8.8064525128 	 21.6139544206 	 6.3369342422 	 23.7384222984
2458884.2536886646 	 0.0000000000 	 20.3725969140 	 17.5670346114 	 23.0946413467 	 14.4486030120 	 26.0140247531 	 12.3062411215 	 28.0658454150
2458884.4588938695 	 0.0000000000 	 23.1317451633 	 20.8706411446 	 25.3861914966 	 18.3178993052 	 28.0327152686 	 16.4484204353 	 29.8491770802
2458884.6640990749 	 0.0000000000 	 23.0313417891 	 21.0005125141 	 25.1394761335 	 18.6637050082 	 27.4392116138 	 17.2385902718 	 29.1871438291
2458884.8693042803 	 0.0000000000 	 20.0894326297 	 17.2488967890 	 22.4945805185 	 13.6061569237 	 24.9668795476 	 10.9693701272 	 26.7041478721
2458885.0745094852 	 0.0000000000 	 14.1980345756 	 10.0752218049 	 17.7175111222 	 5.2557882113 	 20.9346197598 	 1.6873709013 	 23.1321335226
2458885.2797146905 	 0.0000000000 	 6.2163252349 	 1.2844913961 	 10.7960204147 	 -3.9264307635 	 15.2108871928 	 -7.1381886085 	 17.8783404367
2458885.4849198959 	 0.0000000000 	 -2.5786809955 	 -7.4714746928 	 2.3616857292 	 -12.0931210646 	 7.6053893028 	 -14.9347191755 	 11.0200795920
2458885.6901251008 	 0.0000000000 	 -10.7422991544 	 -14.7738580916 	 -6.2710069071 	 -18.3474268966 	 -1.0202856751 	 -20.6290279460 	 2.7263349054
2458885.8953303061 	 0.0000000000 	 -17.1034118749 	 -19.9373536946 	 -13.7548150166 	 -22.6858367799 	 -9.5532071711 	 -24.3582382741 	 -5.7789955885
2458886.1005355115 	 0.0000000000 	 -20.9400968657 	 -22.9482672587 	 -18.8583958923 	 -25.1631559579 	 -16.1328052325 	 -26.6896955319 	 -13.2947153328
2458886.3057407164 	 0.0000000000 	 -22.3292765710 	 -24.1603424343 	 -20.4901511889 	 -26.2648546699 	 -18.4622010453 	 -27.6544837927 	 -17.0655927971
2458886.5109459218 	 0.0000000000 	 -21.3511070198 	 -23.5009817864 	 -19.0309228665 	 -25.6944542866 	 -16.3605262021 	 -27.3513089827 	 -14.5891939899
2458886.7161511271 	 0.0000000000 	 -18.0263057965 	 -20.7437562729 	 -15.1660079945 	 -23.4476793288 	 -11.9750782204 	 -25.2249712254 	 -10.0135650447
2458886.9213563320 	 0.0000000000 	 -12.8836887773 	 -15.9405450424 	 -9.7189256564 	 -19.1795911969 	 -6.2484539763 	 -21.5802205685 	 -4.1703894380
2458887.1265615374 	 0.0000000000 	 -6.4665238881 	 -9.7013693950 	 -3.1594336354 	 -13.2490574063 	 0.3908233928 	 -15.9171269364 	 2.7782522673
2458887.3317667427 	 0.0000000000 	 0.6792970124 	 -2.6114529224 	 4.0760842166 	 -6.2482326734 	 7.5174347460 	 -8.8827538382 	 10.1253510427
2458887.5369719476 	 0.0000000000 	 7.9478192664 	 4.6827169628 	 11.2330192787 	 1.1179759079 	 14.5757273603 	 -1.5100373771 	 17.0432742845
2458887.7421771530 	 0.0000000000 	 14.6039276734 	 11.4590910885 	 17.7175379275 	 8.0617901598 	 20.9651722424 	 5.6662190752 	 23.0103894355
2458887.9473823584 	 0.0000000000 	 19.8760851544 	 17.0550711621 	 22.6359443789 	 13.9064500872 	 25.5688682379 	 11.7679610407 	 27.6445211671
2458888.1525875633 	 0.0000000000 	 22.9470859882 	 20.6329266041 	 25.2544666088 	 18.0150805451 	 27.9560397532 	 16.0482744382 	 29.7639807037
2458888.3577927686 	 0.0000000000 	 23.1956178305 	 21.1794847043 	 25.2919586948 	 18.9532477811 	 27.6028844391 	 17.5757992842 	 29.4303637274
2458888.5629979740 	 0.0000000000 	 20.5828828339 	 17.9260177428 	 22.8990212667 	 14.4657207529 	 25.3675579890 	 11.9822828765 	 27.0290048312
2458888.7682031789 	 0.0000000000 	 15.0234367270 	 11.0733380832 	 18.3767355574 	 6.4045218073 	 21.4696851743 	 2.9121369983 	 23.5716179953
2458888.9734083842 	 0.0000000000 	 7.2172676762 	 2.3784131796 	 11.6794923943 	 -2.8107505362 	 15.9864485049 	 -5.9932502410 	 18.5547009019
2458889.1786135896 	 0.0000000000 	 -1.5606872917 	 -6.4701563149 	 3.3655500078 	 -11.1493337147 	 8.5319719488 	 -14.0232108635 	 11.8855212763
2458889.3838187945 	 0.0000000000 	 -9.8563227028 	 -14.0046319866 	 -5.3247279654 	 -17.6406392519 	 -0.0732792620 	 -20.0377009550 	 3.6873379721
2458889.5890239999 	 0.0000000000 	 -16.4785460916 	 -19.4360043512 	 -13.0104003084 	 -22.2798854282 	 -8.6991343277 	 -23.9510664378 	 -4.9157427049
2458889.7942292052 	 0.0000000000 	 -20.6364126280 	 -22.6993649230 	 -18.4257103856 	 -24.9430945731 	 -15.5655387792 	 -26.5015085858 	 -12.6103797141
2458889.9994344101 	 0.0000000000 	 -22.2983101557 	 -24.1161809705 	 -20.4842349587 	 -26.2318090429 	 -18.4602446544 	 -27.6209443331 	 -16.9563652974
2458890.2046396155 	 0.0000000000 	 -21.5960741636 	 -23.6779510587 	 -19.3330854805 	 -25.8704296907 	 -16.8060529163 	 -27.4664637067 	 -15.0225630708
2458890.4098448209 	 0.0000000000 	 -18.5234134598 	 -21.1888993966 	 -15.7129698978 	 -23.7853403171 	 -12.6000298188 	 -25.5477457991 	 -10.6685909838
2458890.6150500257 	 0.0000000000 	 -13.5676380457 	 -16.5673816105 	 -10.4464677894 	 -19.7485328205 	 -7.0298099557 	 -22.1135661858 	 -4.9876670059
2458890.8202552311 	 0.0000000000 	 -7.2636949237 	 -10.4812460449 	 -3.9946070291 	 -13.9950498214 	 -0.4530156127 	 -16.5770486827 	 1.8057714391
2458891.0254604365 	 0.0000000000 	 -0.1826482083 	 -3.4499336192 	 3.1889153842 	 -7.0454569326 	 6.6218291044 	 -9.6695610010 	 9.2264770013
2458891.2306656414 	 0.0000000000 	 7.1066200551 	 3.8587608851 	 10.3977429804 	 0.2852042388 	 13.7205277226 	 -2.3049856226 	 16.1871687071
2458891.4358708467 	 0.0000000000 	 13.8779125526 	 10.7404344820 	 17.0237229850 	 7.3357045614 	 20.2572393694 	 4.9415341939 	 22.3440292887
2458891.6410760521 	 0.0000000000 	 19.3475057765 	 16.5018436125 	 22.1344304525 	 13.3300840445 	 25.1256872966 	 11.1146778929 	 27.1732153183
2458891.8462812570 	 0.0000000000 	 22.7264041360 	 20.3577547195 	 25.0745537644 	 17.6944080566 	 27.7967699380 	 15.6889470438 	 29.6519565248
2458892.0514864624 	 0.0000000000 	 23.3163625017 	 21.3112953749 	 25.4198491848 	 19.1612633046 	 27.7612648620 	 17.6639711006 	 29.4544747053
2458892.2566916677 	 0.0000000000 	 21.0544227813 	 18.5239451529 	 23.2834734586 	 15.2901755365 	 25.6800239852 	 12.9158240262 	 27.3099511530
2458892.4618968726 	 0.0000000000 	 15.8109202622 	 12.0381566845 	 19.0120065877 	 7.5327503882 	 21.9710863374 	 4.1255615934 	 24.0122158467
2458892.6671020780 	 0.0000000000 	 8.2100135963 	 3.4829306674 	 12.5422458364 	 -1.7137973504 	 16.6817812159 	 -4.9594637978 	 19.1608756783
2458892.8723072829 	 0.0000000000 	 -0.5410423977 	 -5.4348740263 	 4.3465358485 	 -10.1987856491 	 9.4740044600 	 -13.1428004518 	 12.6849026039
2458893.0775124882 	 0.0000000000 	 -8.9529194180 	 -13.2048264028 	 -4.3494552021 	 -16.9336886573 	 0.8805107948 	 -19.4186676499 	 4.5810330463
2458893.2827176936 	 0.0000000000 	 -15.8089971007 	 -18.8957545486 	 -12.2175980397 	 -21.8222188014 	 -7.8067313545 	 -23.5442738223 	 -4.1098786817
2458893.4879228985 	 0.0000000000 	 -20.2807752626 	 -22.4131206776 	 -17.9639385530 	 -24.7099175848 	 -14.9625118118 	 -26.2699653227 	 -11.8342750557
2458893.6931281039 	 0.0000000000 	 -22.2235721015 	 -24.0436167374 	 -20.4349995436 	 -26.1933745765 	 -18.4255509159 	 -27.5402319263 	 -16.8971143135
2458893.8983333092 	 0.0000000000 	 -21.7995401686 	 -23.8204094937 	 -19.6035037104 	 -26.0029355684 	 -17.2074306440 	 -27.6371772664 	 -15.4362825888
2458894.1035385141 	 0.0000000000 	 -19.0008329319 	 -21.5875333764 	 -16.2580827105 	 -24.1114981147 	 -13.2011709140 	 -25.8610481153 	 -11.2780686221
2458894.3087437195 	 0.0000000000 	 -14.2351508501 	 -17.1775820171 	 -11.1388805423 	 -20.2794354837 	 -7.7969084608 	 -22.5583009296 	 -5.7081173563
2458894.5139489248 	 0.0000000000 	 -8.0553075192 	 -11.2377120158 	 -4.8113285311 	 -14.6946751034 	 -1.3074151893 	 -17.2758067667 	 0.9685243360
2458894.7191541297 	 0.0000000000 	 -1.0357122518 	 -4.2859926501 	 2.3066167708 	 -7.8382009651 	 5.7163793769 	 -10.4474779759 	 8.3154163055
2458894.9243593351 	 0.0000000000 	 6.2749952370 	 3.0243382478 	 9.5581820991 	 -0.5071973109 	 12.8637547369 	 -3.1188307526 	 15.4031719615
2458895.1295645405 	 0.0000000000 	 13.1411125634 	 9.9870654881 	 16.2889883218 	 6.5703664221 	 19.5018178348 	 4.1831924671 	 21.6399981893
2458895.3347697454 	 0.0000000000 	 18.8046668289 	 15.9190881971 	 21.6392272132 	 12.7172382436 	 24.6196729006 	 10.5306277311 	 26.6664511953
2458895.5399749507 	 0.0000000000 	 22.4681492314 	 20.0380843194 	 24.8597848629 	 17.3261341115 	 27.5886591846 	 15.3522495139 	 29.4515156659
2458895.7451801561 	 0.0000000000 	 23.4109107157 	 21.3978918569 	 25.5118710584 	 19.2271861127 	 27.9497346012 	 17.7791694228 	 29.5244011548
2458895.9503853610 	 0.0000000000 	 21.4696156819 	 19.0720856765 	 23.6536890015 	 16.0416893352 	 25.9856770457 	 13.8644570610 	 27.6451565008
2458896.1555905663 	 0.0000000000 	 16.5512501949 	 12.9542167510 	 19.6166751709 	 8.5713363567 	 22.4853260070 	 5.3508120101 	 24.4159401191
2458896.3607957717 	 0.0000000000 	 9.1844459256 	 4.5572885474 	 13.3948447446 	 -0.5029340840 	 17.3200062759 	 -3.8515032660 	 19.8006191979
2458896.5660009766 	 0.0000000000 	 0.4889868028 	 -4.3775731339 	 5.3179606646 	 -9.2089554279 	 10.3190000543 	 -12.1673001233 	 13.4551949197
2458896.7712061820 	 0.0000000000 	 -8.0027557519 	 -12.3562939280 	 -3.3967102007 	 -16.1841946486 	 1.8391330765 	 -18.7496817186 	 5.4670212290
2458896.9764113873 	 0.0000000000 	 -15.1169819188 	 -18.3236774918 	 -11.4226731479 	 -21.3390240574 	 -6.8970397067 	 -23.1653632620 	 -3.1478757444
2458897.1816165922 	 0.0000000000 	 -19.9002443671 	 -22.1108132199 	 -17.4567563972 	 -24.4520486538 	 -14.3061503823 	 -26.0243463832 	 -11.1179137594
2458897.3868217976 	 0.0000000000 	 -22.1159062182 	 -23.9591672170 	 -20.3338531246 	 -26.1010006055 	 -18.3140384175 	 -27.4653667253 	 -16.5875661751
2458897.5920270029 	 0.0000000000 	 -21.9788006694 	 -23.9661325173 	 -19.8672117692 	 -26.0984692038 	 -17.5561756594 	 -27.6531387618 	 -15.8990680322
2458897.7972322078 	 0.0000000000 	 -19.4524102511 	 -21.9520464458 	 -16.7830295991 	 -24.4628067495 	 -13.7664387055 	 -26.2150603138 	 -11.8705310562
2458898.0024374132 	 0.0000000000 	 -14.8678437378 	 -17.7709620409 	 -11.8402261138 	 -20.8190125834 	 -8.5464744768 	 -22.9851378420 	 -6.4426210161
2458898.2076426186 	 0.0000000000 	 -8.8345933217 	 -11.9868582421 	 -5.6312979293 	 -15.3739157883 	 -2.1454587774 	 -18.0122309038 	 0.0724740786
2458898.4128478235 	 0.0000000000 	 -1.8819661327 	 -5.1037930115 	 1.4182428299 	 -8.6564578427 	 4.8155434684 	 -11.2159484244 	 7.4135612652
2458898.6180530288 	 0.0000000000 	 5.4190219862 	 2.1942605292 	 8.6913811156 	 -1.2896103485 	 11.9926495731 	 -3.9168113838 	 14.5965163548
2458898.8232582342 	 0.0000000000 	 12.3863605801 	 9.2345186143 	 15.5295307400 	 5.8239714064 	 18.7623302838 	 3.4271692809 	 20.8802299100
2458899.0284634391 	 0.0000000000 	 18.2288395540 	 15.3069930690 	 21.0815405590 	 12.1276427351 	 24.0983398823 	 9.9649561253 	 26.1336374289
2458899.2336686444 	 0.0000000000 	 22.1731996161 	 19.6880027623 	 24.6128789516 	 16.9358011146 	 27.3657353521 	 14.9309649217 	 29.2865147862
2458899.4388738498 	 0.0000000000 	 23.4536854951 	 21.4159170268 	 25.5753750162 	 19.2265665947 	 28.0483508927 	 17.7605850659 	 29.6722282972
2458899.6440790547 	 0.0000000000 	 21.8632384631 	 19.5702064587 	 24.0037445265 	 16.7062441656 	 26.2895955481 	 14.6749215121 	 27.9787843622
2458899.8492842601 	 0.0000000000 	 17.2727548189 	 13.8556292979 	 20.1996749081 	 9.6063514102 	 22.9815978951 	 6.5896928686 	 24.9761270078
2458900.0544894654 	 0.0000000000 	 10.1456141777 	 5.6514885564 	 14.1824338274 	 0.6598255108 	 17.9836714943 	 -2.7317190782 	 20.4309796713
2458900.2596946703 	 0.0000000000 	 1.5341075044 	 -3.3173298253 	 6.2752827480 	 -8.2615790726 	 11.1879408048 	 -11.2349798418 	 14.1899405363
2458900.4648998757 	 0.0000000000 	 -7.0618320241 	 -11.5110227991 	 -2.4106068640 	 -15.4932471643 	 2.8051807529 	 -18.0434932606 	 6.4088965238
2458900.6701050811 	 0.0000000000 	 -14.3813740287 	 -17.7203301240 	 -10.5992361335 	 -20.8261798161 	 -5.9490938582 	 -22.7045823529 	 -2.1243101446
2458900.8753102859 	 0.0000000000 	 -19.4790810699 	 -21.7736932850 	 -16.9085061801 	 -24.1242702460 	 -13.5613338440 	 -25.7516131284 	 -10.3213726477
2458901.0805154913 	 0.0000000000 	 -21.9910030341 	 -23.8243490907 	 -20.1844540562 	 -25.9919550763 	 -18.0882354417 	 -27.3580725054 	 -16.2721350096
2458901.2857206967 	 0.0000000000 	 -22.1400225534 	 -24.0670465915 	 -20.0698899171 	 -26.1724067130 	 -17.8365531068 	 -27.7389627541 	 -16.2671381296
2458901.4909259016 	 0.0000000000 	 -19.8569724806 	 -22.2983667388 	 -17.2632765380 	 -24.7169196831 	 -14.3276158418 	 -26.4879997743 	 -12.4517142841
2458901.6961311069 	 0.0000000000 	 -15.4873223504 	 -18.3482694347 	 -12.5101369086 	 -21.3372659663 	 -9.2281106556 	 -23.3749939196 	 -7.1862090833
2458901.9013363123 	 0.0000000000 	 -9.5978357306 	 -12.7005662070 	 -6.4408097883 	 -16.0530538301 	 -2.9698236162 	 -18.5889163851 	 -0.8557578481
2458902.1065415172 	 0.0000000000 	 -2.7393549956 	 -5.9237370664 	 0.5448458563 	 -9.4480809602 	 3.9144796900 	 -11.9490753032 	 6.4568926917
2458902.3117467226 	 0.0000000000 	 4.5696186618 	 1.3530114028 	 7.8329222636 	 -2.0983514529 	 11.1463676645 	 -4.7076560889 	 13.7347780072
2458902.5169519279 	 0.0000000000 	 11.6026604122 	 8.4590342729 	 14.7370508398 	 5.0987926071 	 17.9835173294 	 2.6305720793 	 20.0776182739
2458902.7221571328 	 0.0000000000 	 17.6163146928 	 14.6900488021 	 20.5103475844 	 11.5194672655 	 23.5343990694 	 9.3271802331 	 25.5684777161
2458902.9273623382 	 0.0000000000 	 21.8299595239 	 19.2933018190 	 24.3132564993 	 16.5015914161 	 27.1394270325 	 14.5121821021 	 29.0736575905
2458903.1325675435 	 0.0000000000 	 23.4462867669 	 21.4049107282 	 25.6027334261 	 19.1807096288 	 28.1221880075 	 17.6167137163 	 29.7983163456
2458903.3377727484 	 0.0000000000 	 22.1953810310 	 19.9974019088 	 24.3137255855 	 17.3314749687 	 26.5938450592 	 15.5040364074 	 28.3167770413
2458903.5429779538 	 0.0000000000 	 17.9591339037 	 14.7019922189 	 20.7614181936 	 10.6795119237 	 23.4366857409 	 7.8474647051 	 25.1976427689
2458903.7481831592 	 0.0000000000 	 11.0902310855 	 6.7243392175 	 14.9759941825 	 1.8181636137 	 18.6409275460 	 -1.5924811854 	 21.0159925046
2458903.9533883641 	 0.0000000000 	 2.5772215446 	 -2.2653782174 	 7.2467860962 	 -7.2108413810 	 12.0204679190 	 -10.2548721157 	 14.9422695329
2458904.1585935694 	 0.0000000000 	 -6.0771504352 	 -10.6087101114 	 -1.4179568311 	 -14.7116684051 	 3.7442644393 	 -17.2921440200 	 7.2596826857
2458904.3637987748 	 0.0000000000 	 -13.6247129854 	 -17.0989124253 	 -9.7423418666 	 -20.2580848636 	 -4.9956177182 	 -22.2450853401 	 -1.1904279820
2458904.5690039797 	 0.0000000000 	 -19.0232582382 	 -21.4011805191 	 -16.3113071606 	 -23.8492455401 	 -12.8328886871 	 -25.4467042680 	 -9.4834218578
2458904.7742091850 	 0.0000000000 	 -21.8231031514 	 -23.6839678672 	 -20.0102170135 	 -25.8407085849 	 -17.8212873693 	 -27.2262145197 	 -15.9097345361
2458904.9794143904 	 0.0000000000 	 -22.2535485893 	 -24.1438591352 	 -20.2447882339 	 -26.2422303826 	 -18.0742735643 	 -27.8308512188 	 -16.5842901366
2458905.1846195953 	 0.0000000000 	 -20.2374818008 	 -22.6062675366 	 -17.7158692243 	 -24.9621485800 	 -14.8777829239 	 -26.6701219911 	 -13.0515376201
2458905.3898248007 	 0.0000000000 	 -16.0917736736 	 -18.8909825377 	 -13.1648521005 	 -21.8291760373 	 -9.9290678223 	 -23.7579425993 	 -7.8723739542
2458905.5950300060 	 0.0000000000 	 -10.3480386107 	 -13.4138154829 	 -7.2232936556 	 -16.7130379398 	 -3.7819013502 	 -19.1938799127 	 -1.7070640912
2458905.8002352109 	 0.0000000000 	 -3.5789556869 	 -6.7388980445 	 -0.3367050906 	 -10.2203247888 	 3.0565232607 	 -12.7187882590 	 5.4209381207
2458906.0054404163 	 0.0000000000 	 3.7008619369 	 0.5207255631 	 6.9613902384 	 -2.9633849181 	 10.2401716267 	 -5.5176952189 	 12.8767639904
2458906.2106456216 	 0.0000000000 	 10.8115124747 	 7.6837819537 	 13.9540608406 	 4.3183063639 	 17.1658074092 	 1.8129228502 	 19.3122306143
2458906.4158508265 	 0.0000000000 	 16.9864957890 	 14.0533525761 	 19.8961513979 	 10.9097329484 	 22.9423978958 	 8.6379017516 	 25.0146307052
2458906.6210560319 	 0.0000000000 	 21.4580738773 	 18.8992639233 	 23.9986066881 	 16.0264476901 	 26.8445609575 	 13.9840726633 	 28.7805360476
2458906.8262612373 	 0.0000000000 	 23.4211566153 	 21.3187650935 	 25.5736637642 	 19.0622823445 	 28.1311931906 	 17.3866858493 	 29.8587040195
2458907.0314664422 	 0.0000000000 	 22.4827643012 	 20.3807037155 	 24.6150871141 	 17.8580720834 	 26.8826506850 	 16.2304493134 	 28.6824384148
2458907.2366716475 	 0.0000000000 	 18.6200169911 	 15.5150798344 	 21.2739651836 	 11.6686063490 	 23.9011426165 	 9.0352828998 	 25.6223222637
2458907.4418768529 	 0.0000000000 	 11.9857485024 	 7.7647739024 	 15.7609520374 	 2.9652665478 	 19.2424631321 	 -0.4600050425 	 21.5536483838
2458907.6470820578 	 0.0000000000 	 3.6180641269 	 -1.1992516669 	 8.2072752711 	 -6.1654755718 	 12.8543614052 	 -9.2156930803 	 15.7110242468
2458907.8522872631 	 0.0000000000 	 -5.1057367740 	 -9.6887756443 	 -0.4237265664 	 -13.8846159262 	 4.6808903075 	 -16.5502105821 	 8.1536457017
2458908.0574924685 	 0.0000000000 	 -12.8434552833 	 -16.4533577632 	 -8.8564757076 	 -19.6994905108 	 -4.0287421075 	 -21.7624680576 	 -0.3009847787
2458908.2626976734 	 0.0000000000 	 -18.5350602523 	 -21.0145942489 	 -15.6782196533 	 -23.5246781076 	 -12.0983192000 	 -25.2755112476 	 -8.6686807531